{"id":"843c9570-139c-4ac2-9ff5-80011c685194","gb":"21040","cas":"115-10-6","name":"(二)甲醚","ename":"methyl ether; dimethyl ether","alias":"甲醚","molecularstr":"C<sub>2</sub>H<sub>6</sub>O；CH<sub>3</sub>OCH<sub>3</sub>","molecularmass":"46.07","meltingpoint":"","density":"相对密度(水=1)0.66；相对密度(空气=1)1.62","dangermark":"4(易燃气体)","characteristics":"","vapourpressure":"533.2kPa","dissolvability":"溶于水、醇、乙醚","stability":"稳定","application":"用作致冷剂、溶剂、萃取剂、聚合物的催化剂和稳定剂","envimpact":"一、健康危害</p>\r\n\r\n<p> 侵入途径：吸入。<br>\r\n \r\n健康危害：对中枢神经系统有抑制作用，麻醉作用弱。吸入后可引起麻醉、窒息感。对皮肤有刺激性。</p>\r\n\r\n<p>二、毒理学资料及环境行为</p>\r\n\r\n<p> 毒性：是一种弱麻醉剂，对呼吸道和皮肤有刺激作用。<br>\r\n 急性毒性：LC<sub>50</sub>308000mg/m<sup>3</sup>(大鼠吸入)；人吸入154.24g/m<sup>3</sup>×30分，轻度麻醉。</p>\r\n\r\n<p>危险特性：易燃气体。与空气混合能形成爆炸性混合物。接触热、火星、火焰或氧化剂易燃烧爆炸。接触空气或在光照条件下可生成具有潜在爆炸危险性的过氧化物。气体比空气重，能在较低处扩散到相当远的地方，遇明火会引着回燃。若遇高热，容器内压增大，有开裂和爆炸的危险。<br>\r\n 燃烧(分解)产物：一氧化碳、二氧化碳。","fieldtest":"　","response":"一、泄漏应急处理 </p>\r\n\r\n<p>迅速撤离泄漏污染区人员至上风处，并进行隔离，严格限制出入。切断火源。建议应急处理人员戴自给正压式呼吸器，穿消防防护服。尽可能切断泄漏源。用工业覆盖层或吸附/吸收剂盖住泄漏点附近的下水道等地方，防止气体进入。合理通风，加速扩散。喷雾状水稀释、溶解。构筑围堤或挖坑收容产生的大量废水。漏气容器要妥善处理，修复、检验后再用。</p>\r\n\r\n<p>二、防护措施</p>\r\n\r\n<p> \r\n呼吸系统防护：一般不需要特殊防护，高浓度接触时可佩戴自吸过滤式防毒面具(半面罩)。<br>\r\n \r\n眼睛防护：一般不需要特殊防护，但建议特殊情况下，戴化学安全防护眼镜。<br>\r\n 身体防护：穿防静电工作服。<br>\r\n 手防护：戴一般作业防护手套。<br>\r\n \r\n其它：工作现场严禁吸烟。进入罐、限制性空间或其它高浓度区作业，须有人监护。</p>\r\n\r\n<p>三、急救措施</p>\r\n\r\n<p>吸入：迅速脱离现场至空气新鲜处。保持呼吸道通畅。如呼吸困难，给输氧。如呼吸停止，立即进行人工呼吸。就医。</p>\r\n\r\n<p>灭火方法：切断气源。若不能立即切断气源，则不允许熄灭正在燃烧的气体。喷水冷却容器，可能的话将容器从火场移至空旷处。灭火剂：雾状水、抗溶性泡沫、干粉、二氧化碳、砂土。","category":"醇和醚类","priority":"","boilingpoint":"","flashpoint":""}